1
config_type=isolated_atom gap_energy=-157.72725320 gap_virial="0.00000000       0.00000000       0.00000000       0.00000000       0.00000000       0.00000000       0.00000000       0.00000000       0.00000000" dft_energy=-158.54496821 cutoff=5.50000000 nneightol=1.20000000 pbc="T T T" Lattice="20.00000000       0.00000000       0.00000000       0.00000000      20.00000000       0.00000000       0.00000000       0.00000000      20.00000000" Properties=species:S:1:pos:R:3:Z:I:1:map_shift:I:3:n_neighb:I:1:gap_force:R:3:dft_force:R:3
Si             10.00000000     10.00000000     10.00000000      14      -1      -1      -1       0      0.00000000      0.00000000      0.00000000      0.00000000      0.00000000      0.00000000
--
--
1
config_type=sh dft_energy=-162.78192000 dft_virial="-0.90482800      -0.10971200       0.17244000      -0.10971200      -0.77309000       0.25399700       0.17244000       0.25399700       0.13800100" cutoff=-1.00000000 nneightol=1.20000000 pbc="T T T" Lattice="2.83550700       0.00000000       0.00000000      -1.23740400       2.34926700       0.00000000      -0.08020200      -0.08710900       2.44702200" Properties=species:S:1:pos:R:3:dft_force:R:3:Z:I:1
Si              0.00000000      0.00000000      0.00000000      0.00000000      0.00000000      0.00000000      14
--
--
1
config_type=sh dft_energy=-162.66646500 dft_virial="-1.51835000      -0.00250994      -0.01280370      -0.00250994      -1.42032000       0.43064600      -0.01280370       0.43064600      -0.30555700" cutoff=-1.00000000 nneightol=1.20000000 pbc="T T T" Lattice="2.87002600       0.00000000       0.00000000      -1.06074400       2.53558600       0.00000000      -0.02552300      -0.16939200       2.47325500" Properties=species:S:1:pos:R:3:dft_force:R:3:Z:I:1
Si              0.00000000      0.00000000      0.00000000      0.00000000      0.00000000      0.00000000      14
--
--
1
config_type=sh dft_energy=-162.74805100 dft_virial="-0.64225800      -0.24545700       0.37793900      -0.24545700       0.02824880       0.13872600       0.37793900       0.13872600      -0.45512700" cutoff=-1.00000000 nneightol=1.20000000 pbc="T T T" Lattice="2.72669500       0.00000000       0.00000000      -0.78386600       2.37225800       0.00000000      -0.24923000      -0.10058400       2.52860300" Properties=species:S:1:pos:R:3:dft_force:R:3:Z:I:1
Si              0.00000000      0.00000000      0.00000000      0.00000000      0.00000000      0.00000000      14
--
--
1
config_type=sh dft_energy=-162.69936700 dft_virial="-0.73772600      -0.31652100      -0.20026500      -0.31652100       0.27616800       0.70916900      -0.20026500       0.70916900      -0.25094800" cutoff=-1.00000000 nneightol=1.20000000 pbc="T T T" Lattice="2.78068300       0.00000000       0.00000000      -0.86094500       2.31389500       0.00000000       0.03373300      -0.34327400       2.51557600" Properties=species:S:1:pos:R:3:dft_force:R:3:Z:I:1
Si              0.00000000      0.00000000      0.00000000      0.00000000      0.00000000      0.00000000      14
--
--
1
config_type=sh dft_energy=-162.70425900 dft_virial="0.01053220      -0.25114200       0.38666700      -0.25114200       0.23337600       0.59238400       0.38666700       0.59238400      -0.40537400" cutoff=-1.00000000 nneightol=1.20000000 pbc="T T T" Lattice="2.76042400       0.00000000       0.00000000      -1.22278800       2.17766200       0.00000000      -0.33736300      -0.40242200       2.54584600" Properties=species:S:1:pos:R:3:dft_force:R:3:Z:I:1
Si              0.00000000      0.00000000      0.00000000      0.00000000      0.00000000      0.00000000      14
--
--
1
config_type=sh dft_energy=-162.74604600 dft_virial="-0.49042700      -0.08610540       0.25343800      -0.08610540      -0.42978800       0.65044100       0.25343800       0.65044100      -0.57605700" cutoff=-1.00000000 nneightol=1.20000000 pbc="T T T" Lattice="2.92806600       0.00000000       0.00000000      -1.38024400       2.18117500       0.00000000      -0.18060800      -0.27632100       2.54566200" Properties=species:S:1:pos:R:3:dft_force:R:3:Z:I:1
Si              0.00000000      0.00000000      0.00000000      0.00000000      0.00000000      0.00000000      14
--
--
1
config_type=sh dft_energy=-162.76528200 dft_virial="-0.13973000      -0.32063100       0.13935800      -0.32063100       0.40768200       0.39079900       0.13935800       0.39079900       1.01780000" cutoff=-1.00000000 nneightol=1.20000000 pbc="T T T" Lattice="2.91968600       0.00000000       0.00000000      -1.28945000       2.13661600       0.00000000      -0.12347300      -0.14791600       2.39789400" Properties=species:S:1:pos:R:3:dft_force:R:3:Z:I:1
Si              0.00000000      0.00000000      0.00000000      0.00000000      0.00000000      0.00000000      14
--
--
1
config_type=sh dft_energy=-162.75897700 dft_virial="-0.46510100       0.12395900       0.46376800       0.12395900      -0.30752100       0.65775200       0.46376800       0.65775200      -0.08832570" cutoff=-1.00000000 nneightol=1.20000000 pbc="T T T" Lattice="2.76585000       0.00000000       0.00000000      -1.44818100       2.28009300       0.00000000      -0.22051000      -0.26494000       2.48555800" Properties=species:S:1:pos:R:3:dft_force:R:3:Z:I:1
Si              0.00000000      0.00000000      0.00000000      0.00000000      0.00000000      0.00000000      14
--
--
1
config_type=sh dft_energy=-162.68420100 dft_virial="0.40126800      -0.01464350       0.43537900      -0.01464350       0.08802120      -0.00807381       0.43537900      -0.00807381       1.43645000" cutoff=-1.00000000 nneightol=1.20000000 pbc="T T T" Lattice="2.58347900       0.00000000       0.00000000      -1.05759800       2.35529500       0.00000000      -0.47833900      -0.08524400       2.35262600" Properties=species:S:1:pos:R:3:dft_force:R:3:Z:I:1
Si              0.00000000      0.00000000      0.00000000      0.00000000      0.00000000      0.00000000      14
--
--
1
config_type=sh dft_energy=-162.73790100 dft_virial="0.13539300      -0.41881000       0.59576000      -0.41881000       0.80547900      -0.09640510       0.59576000      -0.09640510       0.96977800" cutoff=-1.00000000 nneightol=1.20000000 pbc="T T T" Lattice="2.74745700       0.00000000       0.00000000      -1.11662100       2.18679200       0.00000000      -0.32710100      -0.03620900       2.40545300" Properties=species:S:1:pos:R:3:dft_force:R:3:Z:I:1
Si              0.00000000      0.00000000      0.00000000      0.00000000      0.00000000      0.00000000      14
--
--
1
config_type=sh dft_energy=-162.79672000 dft_virial="-0.64811000      -0.15360000       0.16261900      -0.15360000      -0.47182600       0.25676700       0.16261900       0.25676700       0.42461000" cutoff=-1.00000000 nneightol=1.20000000 pbc="T T T" Lattice="2.81011900       0.00000000       0.00000000      -1.22471000       2.31097100       0.00000000      -0.08020200      -0.08710900       2.42775200" Properties=species:S:1:pos:R:3:dft_force:R:3:Z:I:1
Si              0.00000000      0.00000000      0.00000000      0.00000000      0.00000000      0.00000000      14
--
--
1
config_type=sh dft_energy=-162.70452700 dft_virial="-1.34477000       0.01842600      -0.30334300       0.01842600      -1.34231000      -0.27782700      -0.30334300      -0.27782700      -0.49056000" cutoff=-1.00000000 nneightol=1.20000000 pbc="T T T" Lattice="2.77200800       0.00000000       0.00000000      -1.08961600       2.54550600       0.00000000       0.13249900       0.13473500       2.50320900" Properties=species:S:1:pos:R:3:dft_force:R:3:Z:I:1
Si              0.00000000      0.00000000      0.00000000      0.00000000      0.00000000      0.00000000      14
--
--
1
config_type=sh dft_energy=-162.75390700 dft_virial="-0.35304200       0.01427970      -0.65477100       0.01427970      -0.55206600      -0.41538300      -0.65477100      -0.41538300      -0.37526300" cutoff=-1.00000000 nneightol=1.20000000 pbc="T T T" Lattice="2.60288200       0.00000000       0.00000000      -1.53170400       2.45509100       0.00000000       0.23898500       0.18623000       2.51764700" Properties=species:S:1:pos:R:3:dft_force:R:3:Z:I:1
Si              0.00000000      0.00000000      0.00000000      0.00000000      0.00000000      0.00000000      14
--
--
1
config_type=sh dft_energy=-162.81173800 dft_virial="0.08489720       0.17229300      -0.41295100       0.17229300       0.15463100      -0.25853600      -0.41295100      -0.25853600       0.38523500" cutoff=-1.00000000 nneightol=1.20000000 pbc="T T T" Lattice="2.65686900       0.00000000       0.00000000      -1.47559700       2.29018100       0.00000000       0.13494400       0.06733600       2.44759100" Properties=species:S:1:pos:R:3:dft_force:R:3:Z:I:1
Si              0.00000000      0.00000000      0.00000000      0.00000000      0.00000000      0.00000000      14
--
--
1
config_type=sh dft_energy=-162.76984700 dft_virial="0.42915200       0.39567500       0.53983400       0.39567500       0.87228000       0.18450500       0.53983400       0.18450500       0.16250200" cutoff=-1.00000000 nneightol=1.20000000 pbc="T T T" Lattice="2.64570700       0.00000000       0.00000000      -1.58019000       2.21490100       0.00000000      -0.23615200      -0.01145800       2.48499600" Properties=species:S:1:pos:R:3:dft_force:R:3:Z:I:1
Si              0.00000000      0.00000000      0.00000000      0.00000000      0.00000000      0.00000000      14
--
--
1
config_type=sh dft_energy=-162.81139900 dft_virial="-0.42195300       0.20228500       0.19795700       0.20228500      -0.10626600       0.07368140       0.19795700       0.07368140      -0.12391900" cutoff=-1.00000000 nneightol=1.20000000 pbc="T T T" Lattice="2.84606100       0.00000000       0.00000000      -1.57050500       2.21841400       0.00000000      -0.07939800      -0.00942200       2.48481100" Properties=species:S:1:pos:R:3:dft_force:R:3:Z:I:1
Si              0.00000000      0.00000000      0.00000000      0.00000000      0.00000000      0.00000000      14
--
--
1
config_type=sh dft_energy=-162.77642200 dft_virial="-0.04416150      -0.11445400       0.09188170      -0.11445400       0.46511300      -0.31797600       0.09188170      -0.31797600       1.52685000" cutoff=-1.00000000 nneightol=1.20000000 pbc="T T T" Lattice="2.84954400       0.00000000       0.00000000      -1.37809600       2.16173000       0.00000000      -0.03730300       0.09403000       2.36458600" Properties=species:S:1:pos:R:3:dft_force:R:3:Z:I:1
Si              0.00000000      0.00000000      0.00000000      0.00000000      0.00000000      0.00000000      14
--
--
1
config_type=sh dft_energy=-162.73255400 dft_virial="-0.28993700       0.19831600       0.31563400       0.19831600       0.03054240       0.66235500       0.31563400       0.66235500       0.74974000" cutoff=-1.00000000 nneightol=1.20000000 pbc="T T T" Lattice="2.69360200       0.00000000       0.00000000      -1.52182200       2.30520700       0.00000000      -0.13434000      -0.36489600       2.41377900" Properties=species:S:1:pos:R:3:dft_force:R:3:Z:I:1
Si              0.00000000      0.00000000      0.00000000      0.00000000      0.00000000      0.00000000      14
--
--
1
config_type=sh dft_energy=-162.66699700 dft_virial="-0.37543900       0.30137000       0.22073600       0.30137000       1.07086000       0.48678000       0.22073600       0.48678000       0.35561600" cutoff=-1.00000000 nneightol=1.20000000 pbc="T T T" Lattice="2.68701900       0.00000000       0.00000000      -1.94626000       2.29426500       0.00000000      -0.12542000      -0.43882100       2.46915100" Properties=species:S:1:pos:R:3:dft_force:R:3:Z:I:1
Si              0.00000000      0.00000000      0.00000000      0.00000000      0.00000000      0.00000000      14
--
--
1
config_type=sh dft_energy=-162.69793900 dft_virial="-0.14394900       0.45327400      -0.00835335       0.45327400       0.55621700       0.70585700      -0.00835335       0.70585700       0.20967300" cutoff=-1.00000000 nneightol=1.20000000 pbc="T T T" Lattice="2.75278300       0.00000000       0.00000000      -1.72368400       2.21630300       0.00000000       0.14385800      -0.42770100       2.47454900" Properties=species:S:1:pos:R:3:dft_force:R:3:Z:I:1
Si              0.00000000      0.00000000      0.00000000      0.00000000      0.00000000      0.00000000      14
--
--
1
config_type=sh dft_energy=-162.72587600 dft_virial="0.98434800       0.35667300      -0.14739100       0.35667300       1.82225000      -0.50781300      -0.14739100      -0.50781300       0.81777500" cutoff=-1.00000000 nneightol=1.20000000 pbc="T T T" Lattice="2.71794900       0.00000000       0.00000000      -1.46207600       2.07028100       0.00000000       0.04823700       0.15834900       2.44393900" Properties=species:S:1:pos:R:3:dft_force:R:3:Z:I:1
Si              0.00000000      0.00000000      0.00000000      0.00000000      0.00000000      0.00000000      14
--
--
1
config_type=sh dft_energy=-162.73369300 dft_virial="1.14063000       0.35965700       0.19140600       0.35965700       1.66957000      -0.45225400       0.19140600      -0.45225400       0.03629330" cutoff=-1.00000000 nneightol=1.20000000 pbc="T T T" Lattice="2.58411500       0.00000000       0.00000000      -1.45149200       2.14587600       0.00000000      -0.12098500       0.18236300       2.51118900" Properties=species:S:1:pos:R:3:dft_force:R:3:Z:I:1
Si              0.00000000      0.00000000      0.00000000      0.00000000      0.00000000      0.00000000      14
--
--
1
config_type=sh dft_energy=-162.74477100 dft_virial="0.95916800       0.44348400      -0.10382400       0.44348400       1.78133000      -0.14173200      -0.10382400      -0.14173200      -0.37954700" cutoff=-1.00000000 nneightol=1.20000000 pbc="T T T" Lattice="2.67371700       0.00000000       0.00000000      -1.48510500       2.09081700       0.00000000       0.03734900       0.03812900       2.55251700" Properties=species:S:1:pos:R:3:dft_force:R:3:Z:I:1
Si              0.00000000      0.00000000      0.00000000      0.00000000      0.00000000      0.00000000      14
--
--
1
config_type=sh dft_energy=-162.80382200 dft_virial="-0.48609000       0.05800490      -0.11349800       0.05800490      -0.24840300      -0.43879000      -0.11349800      -0.43879000       0.03371960" cutoff=-1.00000000 nneightol=1.20000000 pbc="T T T" Lattice="2.87782200       0.00000000       0.00000000      -1.46538000       2.21051400       0.00000000       0.04254700       0.13078300       2.47158600" Properties=species:S:1:pos:R:3:dft_force:R:3:Z:I:1
Si              0.00000000      0.00000000      0.00000000      0.00000000      0.00000000      0.00000000      14
--
--
1
config_type=sh dft_energy=-162.76928300 dft_virial="0.40154800      -0.23147900       0.56603000      -0.23147900       0.63217000      -0.37803500       0.56603000      -0.37803500      -0.34096400" cutoff=-1.00000000 nneightol=1.20000000 pbc="T T T" Lattice="2.61355200       0.00000000       0.00000000      -1.16378700       2.22862800       0.00000000      -0.23705600       0.12535000       2.54278200" Properties=species:S:1:pos:R:3:dft_force:R:3:Z:I:1
Si              0.00000000      0.00000000      0.00000000      0.00000000      0.00000000      0.00000000      14
--
--
1
config_type=sh dft_energy=-162.71915500 dft_virial="-0.71979900      -0.18343300       0.43631000      -0.18343300      -0.43741500       0.40282700       0.43631000       0.40282700       0.11120100" cutoff=-1.00000000 nneightol=1.20000000 pbc="T T T" Lattice="2.87454200       0.00000000       0.00000000      -1.08655400       2.29774400       0.00000000      -0.33679200      -0.22741200       2.44559100" Properties=species:S:1:pos:R:3:dft_force:R:3:Z:I:1
Si              0.00000000      0.00000000      0.00000000      0.00000000      0.00000000      0.00000000      14
--
--
1
config_type=sh dft_energy=-162.71188700 dft_virial="-0.17824100      -0.37052000       0.54826900      -0.37052000       0.47877600       0.07543910       0.54826900       0.07543910       0.68155000" cutoff=-1.00000000 nneightol=1.20000000 pbc="T T T" Lattice="2.82024000       0.00000000       0.00000000      -1.06428700       2.20794600       0.00000000      -0.41976000      -0.13494000       2.41067400" Properties=species:S:1:pos:R:3:dft_force:R:3:Z:I:1
Si              0.00000000      0.00000000      0.00000000      0.00000000      0.00000000      0.00000000      14
--
--
1
config_type=sh dft_energy=-162.71168400 dft_virial="0.12928700      -0.55312300       0.18876800      -0.55312300       0.93979000       0.50805300       0.18876800       0.50805300       1.33504000" cutoff=-1.00000000 nneightol=1.20000000 pbc="T T T" Lattice="2.74035200       0.00000000       0.00000000      -0.98998000       2.21542600       0.00000000      -0.22061400      -0.23442100       2.37836300" Properties=species:S:1:pos:R:3:dft_force:R:3:Z:I:1
Si              0.00000000      0.00000000      0.00000000      0.00000000      0.00000000      0.00000000      14
--
--
1
config_type=sh dft_energy=-162.74318300 dft_virial="0.33408500      -0.07027970       0.10228000      -0.07027970       0.45602500       0.41936600       0.10228000       0.41936600       2.36793000" cutoff=-1.00000000 nneightol=1.20000000 pbc="T T T" Lattice="2.65439000       0.00000000       0.00000000      -1.27273700       2.27372300       0.00000000      -0.04994900      -0.14293400       2.31501300" Properties=species:S:1:pos:R:3:dft_force:R:3:Z:I:1
Si              0.00000000      0.00000000      0.00000000      0.00000000      0.00000000      0.00000000      14
--
--
1
config_type=sh dft_energy=-162.80107200 dft_virial="0.23794900      -0.11884400       0.19196500      -0.11884400       0.42366300      -0.31928600       0.19196500      -0.31928600      -0.74526200" cutoff=-1.00000000 nneightol=1.20000000 pbc="T T T" Lattice="2.64196900       0.00000000       0.00000000      -1.25125300       2.22976200       0.00000000      -0.06691300       0.10880700       2.57957400" Properties=species:S:1:pos:R:3:dft_force:R:3:Z:I:1
Si              0.00000000      0.00000000      0.00000000      0.00000000      0.00000000      0.00000000      14
--
--
1
config_type=sh dft_energy=-162.67193300 dft_virial="1.11585000       0.01834880      -0.60099700       0.01834880       1.28580000       0.25365000      -0.60099700       0.25365000       0.66273100" cutoff=-1.00000000 nneightol=1.20000000 pbc="T T T" Lattice="2.55633600       0.00000000       0.00000000      -1.29471500       2.16882300       0.00000000       0.44409400      -0.18997400       2.45321900" Properties=species:S:1:pos:R:3:dft_force:R:3:Z:I:1
Si              0.00000000      0.00000000      0.00000000      0.00000000      0.00000000      0.00000000      14
--
--
1
config_type=sh dft_energy=-162.67660700 dft_virial="0.58125500      -0.14625500      -0.54077300      -0.14625500       0.79973700       0.03751120      -0.54077300       0.03751120       1.11890000" cutoff=-1.00000000 nneightol=1.20000000 pbc="T T T" Lattice="2.62310800       0.00000000       0.00000000      -1.15250300       2.22024700       0.00000000       0.52603700       0.02611600       2.38414400" Properties=species:S:1:pos:R:3:dft_force:R:3:Z:I:1
Si              0.00000000      0.00000000      0.00000000      0.00000000      0.00000000      0.00000000      14
--
--
1
config_type=sh dft_energy=-162.71840600 dft_virial="0.08008950      -0.20552100      -0.59142400      -0.20552100       0.36674600       0.38761200      -0.59142400       0.38761200       0.35189800" cutoff=-1.00000000 nneightol=1.20000000 pbc="T T T" Lattice="2.73507300       0.00000000       0.00000000      -1.26644400       2.19005400       0.00000000       0.43100800      -0.21059500       2.45730300" Properties=species:S:1:pos:R:3:dft_force:R:3:Z:I:1
Si              0.00000000      0.00000000      0.00000000      0.00000000      0.00000000      0.00000000      14
--
--
1
config_type=sh dft_energy=-162.73070400 dft_virial="0.39850500      -0.11098800      -0.58273800      -0.11098800       0.30970200       0.36267400      -0.58273800       0.36267400       1.26308000" cutoff=-1.00000000 nneightol=1.20000000 pbc="T T T" Lattice="2.60681900       0.00000000       0.00000000      -1.24180600       2.28589100       0.00000000       0.31557400      -0.19242300       2.38368200" Properties=species:S:1:pos:R:3:dft_force:R:3:Z:I:1
Si              0.00000000      0.00000000      0.00000000      0.00000000      0.00000000      0.00000000      14
--
--
1
config_type=sh dft_energy=-162.80677600 dft_virial="-0.05497890      -0.03422220      -0.41989000      -0.03422220       0.16418100       0.09956930      -0.41989000       0.09956930      -0.54616000" cutoff=-1.00000000 nneightol=1.20000000 pbc="T T T" Lattice="2.72866900       0.00000000       0.00000000      -1.33913300       2.21631000       0.00000000       0.17526400      -0.02984200       2.54527500" Properties=species:S:1:pos:R:3:dft_force:R:3:Z:I:1
Si              0.00000000      0.00000000      0.00000000      0.00000000      0.00000000      0.00000000      14
--
--
1
config_type=sh dft_energy=-162.77225100 dft_virial="0.45252100       0.26101800      -0.41553800       0.26101800       0.43197800       0.28671500      -0.41553800       0.28671500       0.85460000" cutoff=-1.00000000 nneightol=1.20000000 pbc="T T T" Lattice="2.58230300       0.00000000       0.00000000      -1.58319400       2.31591900       0.00000000       0.20397000      -0.16104500       2.42045900" Properties=species:S:1:pos:R:3:dft_force:R:3:Z:I:1
Si              0.00000000      0.00000000      0.00000000      0.00000000      0.00000000      0.00000000      14
--
--
1
config_type=sh dft_energy=-162.77647400 dft_virial="0.54389400       0.21407700      -0.44019100       0.21407700       0.17805400      -0.02528400      -0.44019100      -0.02528400       0.84523300" cutoff=-1.00000000 nneightol=1.20000000 pbc="T T T" Lattice="2.53956200       0.00000000       0.00000000      -1.64711900       2.39792600       0.00000000       0.17696800      -0.02714400       2.42170000" Properties=species:S:1:pos:R:3:dft_force:R:3:Z:I:1
Si              0.00000000      0.00000000      0.00000000      0.00000000      0.00000000      0.00000000      14
--
--
1
config_type=sh dft_energy=-162.77942200 dft_virial="0.12993700      -0.13822600      -0.66618300      -0.13822600       0.20182200       0.22918700      -0.66618300       0.22918700      -0.16259100" cutoff=-1.00000000 nneightol=1.20000000 pbc="T T T" Lattice="2.63041800       0.00000000       0.00000000      -1.17418100       2.27329400       0.00000000       0.28490000      -0.05684000       2.51660500" Properties=species:S:1:pos:R:3:dft_force:R:3:Z:I:1
Si              0.00000000      0.00000000      0.00000000      0.00000000      0.00000000      0.00000000      14
--
--
1
config_type=sh dft_energy=-162.73264900 dft_virial="0.33761700      -0.10094300      -0.54339000      -0.10094300       0.61291900      -0.19491900      -0.54339000      -0.19491900       1.65932000" cutoff=-1.00000000 nneightol=1.20000000 pbc="T T T" Lattice="2.71634800       0.00000000       0.00000000      -1.26827600       2.19316000       0.00000000       0.30507000       0.10529400       2.35852300" Properties=species:S:1:pos:R:3:dft_force:R:3:Z:I:1
Si              0.00000000      0.00000000      0.00000000      0.00000000      0.00000000      0.00000000      14
--
--
1
config_type=sh dft_energy=-162.79757500 dft_virial="0.66710800      -0.11296400       0.16406400      -0.11296400       0.94604200      -0.08594020       0.16406400      -0.08594020       0.96876500" cutoff=-1.00000000 nneightol=1.20000000 pbc="T T T" Lattice="2.63715600       0.00000000       0.00000000      -1.26332900       2.19755800       0.00000000      -0.06000300       0.02110100       2.41744600" Properties=species:S:1:pos:R:3:dft_force:R:3:Z:I:1
Si              0.00000000      0.00000000      0.00000000      0.00000000      0.00000000      0.00000000      14
--
--
1
config_type=sh dft_energy=-162.78160300 dft_virial="1.19570000       0.12301400       0.06502380       0.12301400       0.91624300      -0.18957800       0.06502380      -0.18957800       1.04692000" cutoff=-1.00000000 nneightol=1.20000000 pbc="T T T" Lattice="2.52709800       0.00000000       0.00000000      -1.32663900       2.25434000       0.00000000      -0.02696200       0.07310200       2.41713000" Properties=species:S:1:pos:R:3:dft_force:R:3:Z:I:1
Si              0.00000000      0.00000000      0.00000000      0.00000000      0.00000000      0.00000000      14
--
--
1
config_type=sh dft_energy=-162.78679000 dft_virial="1.39081000      -0.04859610      -0.15886200      -0.04859610       0.71162200       0.10368500      -0.15886200       0.10368500       0.38927100" cutoff=-1.00000000 nneightol=1.20000000 pbc="T T T" Lattice="2.47277600       0.00000000       0.00000000      -1.20552400       2.30151500       0.00000000       0.04819400      -0.04353200       2.46924900" Properties=species:S:1:pos:R:3:dft_force:R:3:Z:I:1
Si              0.00000000      0.00000000      0.00000000      0.00000000      0.00000000      0.00000000      14
--
--
1
config_type=sh dft_energy=-162.74690100 dft_virial="1.41885000       0.17326100      -0.38003400       0.17326100       0.62074100       0.38614400      -0.38003400       0.38614400       0.54064900" cutoff=-1.00000000 nneightol=1.20000000 pbc="T T T" Lattice="2.45178100       0.00000000       0.00000000      -1.40209400       2.33842000       0.00000000       0.14872200      -0.22516000       2.45389600" Properties=species:S:1:pos:R:3:dft_force:R:3:Z:I:1
Si              0.00000000      0.00000000      0.00000000      0.00000000      0.00000000      0.00000000      14
--
--
1
config_type=sh dft_energy=-162.58302000 dft_virial="2.75750000      -0.14380500      -0.41361300      -0.14380500       1.58664000       0.34307900      -0.41361300       0.34307900       2.36369000" cutoff=-1.00000000 nneightol=1.20000000 pbc="T T T" Lattice="2.38141600       0.00000000       0.00000000      -1.12142100       2.26827700       0.00000000       0.14779200      -0.24351100       2.34084400" Properties=species:S:1:pos:R:3:dft_force:R:3:Z:I:1
Si              0.00000000      0.00000000      0.00000000      0.00000000      0.00000000      0.00000000      14
--
--
1
config_type=sh dft_energy=-162.66671900 dft_virial="2.20105000       0.14043200      -0.47239200       0.14043200       0.62969800       0.43232600      -0.47239200       0.43232600      -0.03554230" cutoff=-1.00000000 nneightol=1.20000000 pbc="T T T" Lattice="2.36593700       0.00000000       0.00000000      -1.34482700       2.35908900       0.00000000       0.21900100      -0.31552800       2.52916400" Properties=species:S:1:pos:R:3:dft_force:R:3:Z:I:1
Si              0.00000000      0.00000000      0.00000000      0.00000000      0.00000000      0.00000000      14
--
--
1
config_type=sh dft_energy=-162.69538700 dft_virial="1.25613000       0.08358620      -0.45163300       0.08358620       0.36437000      -0.35171700      -0.45163300      -0.35171700      -0.89801400" cutoff=-1.00000000 nneightol=1.20000000 pbc="T T T" Lattice="2.43010400       0.00000000       0.00000000      -1.37876400       2.34240100       0.00000000       0.21454800       0.22407700       2.65437300" Properties=species:S:1:pos:R:3:dft_force:R:3:Z:I:1
Si              0.00000000      0.00000000      0.00000000      0.00000000      0.00000000      0.00000000      14
--
--
1
config_type=sh dft_energy=-162.77029600 dft_virial="0.31172700      -0.07802780      -0.67766400      -0.07802780       0.13683100      -0.21456400      -0.67766400      -0.21456400       0.23821700" cutoff=-1.00000000 nneightol=1.20000000 pbc="T T T" Lattice="2.59107800       0.00000000       0.00000000      -1.16090800       2.30612300       0.00000000       0.30553000       0.13826900       2.47322500" Properties=species:S:1:pos:R:3:dft_force:R:3:Z:I:1
Si              0.00000000      0.00000000      0.00000000      0.00000000      0.00000000      0.00000000      14
--
--
1
config_type=sh dft_energy=-162.74146500 dft_virial="0.98561300       0.24175300      -0.58523600       0.24175300       0.85764400      -0.33378200      -0.58523600      -0.33378200       0.94360300" cutoff=-1.00000000 nneightol=1.20000000 pbc="T T T" Lattice="2.53310600       0.00000000       0.00000000      -1.44300500       2.26456000       0.00000000       0.23755100       0.12389200       2.42635800" Properties=species:S:1:pos:R:3:dft_force:R:3:Z:I:1
Si              0.00000000      0.00000000      0.00000000      0.00000000      0.00000000      0.00000000      14
--
--
1
config_type=sh dft_energy=-162.68577900 dft_virial="0.57663100       0.27599900      -0.35488200       0.27599900       0.96819600      -0.50079100      -0.35488200      -0.50079100       1.20307000" cutoff=-1.00000000 nneightol=1.20000000 pbc="T T T" Lattice="2.64363600       0.00000000       0.00000000      -1.45083700       2.18805500       0.00000000       0.29458600       0.31947500       2.39298500" Properties=species:S:1:pos:R:3:dft_force:R:3:Z:I:1
Si              0.00000000      0.00000000      0.00000000      0.00000000      0.00000000      0.00000000      14
--
--
1
config_type=sh dft_energy=-162.69191900 dft_virial="1.52353000       0.19762900       0.17368900       0.19762900       0.35712200      -0.45227800       0.17368900      -0.45227800       1.18801000" cutoff=-1.00000000 nneightol=1.20000000 pbc="T T T" Lattice="2.41497800       0.00000000       0.00000000      -1.49314400       2.43193000       0.00000000      -0.08399000       0.39125700       2.39603900" Properties=species:S:1:pos:R:3:dft_force:R:3:Z:I:1
Si              0.00000000      0.00000000      0.00000000      0.00000000      0.00000000      0.00000000      14
--
--
1